1.1 2.2 3.3 10.5 3.5 0.0
3.2 1.2 2.3 8.7 4.5 0.0
0.8 0.5 0.7 7.2 3.5 0.0
2.3 1.7 0.4 6.5 4.7 0.0