1.1 2.2 3.3     6.5 
3.2 1.2 2.3 8.5
0.8 0.5 0.7 7.2
2.3 1.7 0.4 8.3
